Created on Fri Feb 03 15:26:44 2023 

         624 atoms
         792 bonds
        1536 angles
        1536 dihedrals
         864 impropers

           4 atom types
           6 bond types
           8 angle types
           3 dihedral types
           1 improper types
           0.000000  26.343000 xlo xhi
           0.000000  26.343000 ylo yhi
           0.000000  26.343000 zlo zhi
           0.000000   0.000000   0.000000 xy xz yz

Masses

    1    63.546000000 # Cu3+1
    2    15.999400000 # O_R
    3    12.010700000 # C_R
    4     1.007940000 # H_

Bond Coeffs

    1      190.026252        1.918161  # Cu3+1 O_R
    2       57.988603        2.604000  # Cu3+1 Cu3+1
    3      646.680887        1.311940  # O_R C_R
    4      391.669513        1.458000  # C_R C_R
    5      462.655054        1.379256  # C_R C_R
    6      357.440381        1.081418  # C_R H_

Angle Coeffs

    1                      fourier      152.421295        0.343737        0.374972        0.281246 # O_R Cu3+1 O_R
    2                      fourier       68.052595        0.343737        0.374972        0.281246 # O_R Cu3+1 Cu3+1
    3              cosine/periodic       74.969428              -1               3 # Cu3+1 O_R C_R
    4              cosine/periodic      131.755710              -1               3 # O_R C_R C_R
    5              cosine/periodic      187.136328              -1               3 # O_R C_R O_R
    6              cosine/periodic      102.183280              -1               3 # C_R C_R C_R
    7              cosine/periodic      111.297508              -1               3 # C_R C_R C_R
    8              cosine/periodic       57.289016              -1               3 # C_R C_R H_

Dihedral Coeffs

    1        6.737110              -1               2 # Cu3+1 O_R C_R C_R
    2        1.250000              -1               2 # O_R C_R C_R C_R
    3        3.368555              -1               2 # C_R C_R C_R H_

Improper Coeffs

    1        2.000000        1.000000       -1.000000        0.000000               0 # O_R C_R C_R O_R

Pair Coeffs

    1        0.005000        3.113691 # Cu3+1 Cu3+1
    2        0.060000        3.118146 # O_R O_R
    3        0.105000        3.430851 # C_R C_R
    4        0.044000        2.571134 # H_ H_

Atoms

       1      444        1     1.24800    7.51566    7.51566    0.00000
       2      444        2    -0.62400    8.34019    6.40398   24.96790
       3      444        3     0.49400    7.81860    5.35290   24.53324
       4      444        3     0.13000    8.48245    4.68905   23.36624
       5      444        3    -0.15600    9.62837    5.25279   22.79987
       6      444        4     0.15600   10.01561    6.00620   23.18711
       7      444        1     1.24800   18.82734    7.51566    0.00000
       8      444        2    -0.62400   19.93902    8.34019   24.96790
       9      444        3     0.49400   20.99010    7.81860   24.53324
      10      444        3     0.13000   21.65395    8.48245   23.36624
      11      444        3    -0.15600   21.09021    9.62837   22.79987
      12      444        4     0.15600   20.33680   10.01561   23.18711
      13      444        1     1.24800   18.82734   18.82734    0.00000
      14      444        2    -0.62400   18.00281   19.93902   24.96790
      15      444        3     0.49400   18.52440   20.99010   24.53324
      16      444        3     0.13000   17.86055   21.65395   23.36624
      17      444        3    -0.15600   16.71463   21.09021   22.79987
      18      444        4     0.15600   16.32739   20.33680   23.18711
      19      444        1     1.24800    7.51566   18.82734    0.00000
      20      444        2    -0.62400    6.40398   18.00281   24.96790
      21      444        3     0.49400    5.35290   18.52440   24.53324
      22      444        3     0.13000    4.68905   17.86055   23.36624
      23      444        3    -0.15600    5.25279   16.71463   22.79987
      24      444        4     0.15600    6.00620   16.32739   23.18711
      25      444        2    -0.62400    8.34019   19.93902    1.37510
      26      444        3     0.49400    7.81860   20.99010    1.80976
      27      444        3     0.13000    8.48245   21.65395    2.97676
      28      444        3    -0.15600    9.62837   21.09021    3.54313
      29      444        4     0.15600   10.01561   20.33680    3.15589
      30      444        2    -0.62400    6.40398    8.34019    1.37510
      31      444        3     0.49400    5.35290    7.81860    1.80976
      32      444        3     0.13000    4.68905    8.48245    2.97676
      33      444        3    -0.15600    5.25279    9.62837    3.54313
      34      444        4     0.15600    6.00620   10.01561    3.15589
      35      444        2    -0.62400   18.00281    6.40398    1.37510
      36      444        3     0.49400   18.52440    5.35290    1.80976
      37      444        3     0.13000   17.86055    4.68905    2.97676
      38      444        3    -0.15600   16.71463    5.25279    3.54313
      39      444        4     0.15600   16.32739    6.00620    3.15589
      40      444        2    -0.62400   19.93902   18.00281    1.37510
      41      444        3     0.49400   20.99010   18.52440    1.80976
      42      444        3     0.13000   21.65395   17.86055    2.97676
      43      444        3    -0.15600   21.09021   16.71463    3.54313
      44      444        4     0.15600   20.33680   16.32739    3.15589
      45      444        1     1.24800    0.00000    7.51566    7.51566
      46      444        2    -0.62400   24.96790    8.34019    6.40398
      47      444        3     0.49400   24.53324    7.81860    5.35290
      48      444        3     0.13000   23.36624    8.48245    4.68905
      49      444        3    -0.15600   22.79987    9.62837    5.25279
      50      444        4     0.15600   23.18711   10.01561    6.00620
      51      444        1     1.24800   18.82734    0.00000    7.51566
      52      444        2    -0.62400   18.00281   24.96790    6.40398
      53      444        3     0.49400   18.52440   24.53324    5.35290
      54      444        3     0.13000   17.86055   23.36624    4.68905
      55      444        3    -0.15600   16.71463   22.79987    5.25279
      56      444        4     0.15600   16.32739   23.18711    6.00620
      57      444        1     1.24800    0.00000   18.82734    7.51566
      58      444        2    -0.62400    1.37510   18.00281    6.40398
      59      444        3     0.49400    1.80976   18.52440    5.35290
      60      444        3     0.13000    2.97676   17.86055    4.68905
      61      444        3    -0.15600    3.54313   16.71463    5.25279
      62      444        4     0.15600    3.15589   16.32739    6.00620
      63      444        1     1.24800    7.51566    0.00000    7.51566
      64      444        2    -0.62400    8.34019    1.37510    6.40398
      65      444        3     0.49400    7.81860    1.80976    5.35290
      66      444        3     0.13000    8.48245    2.97676    4.68905
      67      444        3    -0.15600    9.62837    3.54313    5.25279
      68      444        4     0.15600   10.01561    3.15589    6.00620
      69      444        1     1.24800    0.00000   18.82734   18.82734
      70      444        2    -0.62400   24.96790   18.00281   19.93902
      71      444        3     0.49400   24.53324   18.52440   20.99010
      72      444        3     0.13000   23.36624   17.86055   21.65395
      73      444        3    -0.15600   22.79987   16.71463   21.09021
      74      444        4     0.15600   23.18711   16.32739   20.33680
      75      444        1     1.24800    7.51566    0.00000   18.82734
      76      444        2    -0.62400    8.34019   24.96790   19.93902
      77      444        3     0.49400    7.81860   24.53324   20.99010
      78      444        3     0.13000    8.48245   23.36624   21.65395
      79      444        3    -0.15600    9.62837   22.79987   21.09021
      80      444        4     0.15600   10.01561   23.18711   20.33680
      81      444        1     1.24800    0.00000    7.51566   18.82734
      82      444        2    -0.62400    1.37510    8.34019   19.93902
      83      444        3     0.49400    1.80976    7.81860   20.99010
      84      444        3     0.13000    2.97676    8.48245   21.65395
      85      444        3    -0.15600    3.54313    9.62837   21.09021
      86      444        4     0.15600    3.15589   10.01561   20.33680
      87      444        1     1.24800   18.82734    0.00000   18.82734
      88      444        2    -0.62400   18.00281    1.37510   19.93902
      89      444        3     0.49400   18.52440    1.80976   20.99010
      90      444        3     0.13000   17.86055    2.97676   21.65395
      91      444        3    -0.15600   16.71463    3.54313   21.09021
      92      444        4     0.15600   16.32739    3.15589   20.33680
      93      444        2    -0.62400    6.40398   24.96790    8.34019
      94      444        3     0.49400    5.35290   24.53324    7.81860
      95      444        3     0.13000    4.68905   23.36624    8.48245
      96      444        3    -0.15600    5.25279   22.79987    9.62837
      97      444        4     0.15600    6.00620   23.18711   10.01561
      98      444        2    -0.62400    6.40398    1.37510   18.00281
      99      444        3     0.49400    5.35290    1.80976   18.52440
     100      444        3     0.13000    4.68905    2.97676   17.86055
     101      444        3    -0.15600    5.25279    3.54313   16.71463
     102      444        4     0.15600    6.00620    3.15589   16.32739
     103      444        2    -0.62400   24.96790    6.40398   18.00281
     104      444        3     0.49400   24.53324    5.35290   18.52440
     105      444        3     0.13000   23.36624    4.68905   17.86055
     106      444        3    -0.15600   22.79987    5.25279   16.71463
     107      444        4     0.15600   23.18711    6.00620   16.32739
     108      444        2    -0.62400   19.93902   24.96790   18.00281
     109      444        3     0.49400   20.99010   24.53324   18.52440
     110      444        3     0.13000   21.65395   23.36624   17.86055
     111      444        3    -0.15600   21.09021   22.79987   16.71463
     112      444        4     0.15600   20.33680   23.18711   16.32739
     113      444        2    -0.62400    1.37510   19.93902   18.00281
     114      444        3     0.49400    1.80976   20.99010   18.52440
     115      444        3     0.13000    2.97676   21.65395   17.86055
     116      444        3    -0.15600    3.54313   21.09021   16.71463
     117      444        4     0.15600    3.15589   20.33680   16.32739
     118      444        2    -0.62400   19.93902    1.37510    8.34019
     119      444        3     0.49400   20.99010    1.80976    7.81860
     120      444        3     0.13000   21.65395    2.97676    8.48245
     121      444        3    -0.15600   21.09021    3.54313    9.62837
     122      444        4     0.15600   20.33680    3.15589   10.01561
     123      444        2    -0.62400   24.96790   19.93902    8.34019
     124      444        3     0.49400   24.53324   20.99010    7.81860
     125      444        3     0.13000   23.36624   21.65395    8.48245
     126      444        3    -0.15600   22.79987   21.09021    9.62837
     127      444        4     0.15600   23.18711   20.33680   10.01561
     128      444        2    -0.62400    1.37510    6.40398    8.34019
     129      444        3     0.49400    1.80976    5.35290    7.81860
     130      444        3     0.13000    2.97676    4.68905    8.48245
     131      444        3    -0.15600    3.54313    5.25279    9.62837
     132      444        4     0.15600    3.15589    6.00620   10.01561
     133      444        2    -0.62400   18.00281   19.93902    1.37510
     134      444        3     0.49400   18.52440   20.99010    1.80976
     135      444        3     0.13000   17.86055   21.65395    2.97676
     136      444        3    -0.15600   16.71463   21.09021    3.54313
     137      444        4     0.15600   16.32739   20.33680    3.15589
     138      444        2    -0.62400    6.40398   18.00281    1.37510
     139      444        3     0.49400    5.35290   18.52440    1.80976
     140      444        3     0.13000    4.68905   17.86055    2.97676
     141      444        3    -0.15600    5.25279   16.71463    3.54313
     142      444        4     0.15600    6.00620   16.32739    3.15589
     143      444        2    -0.62400    8.34019    6.40398    1.37510
     144      444        3     0.49400    7.81860    5.35290    1.80976
     145      444        3     0.13000    8.48245    4.68905    2.97676
     146      444        3    -0.15600    9.62837    5.25279    3.54313
     147      444        4     0.15600   10.01561    6.00620    3.15589
     148      444        2    -0.62400   19.93902    8.34019    1.37510
     149      444        3     0.49400   20.99010    7.81860    1.80976
     150      444        3     0.13000   21.65395    8.48245    2.97676
     151      444        3    -0.15600   21.09021    9.62837    3.54313
     152      444        4     0.15600   20.33680   10.01561    3.15589
     153      444        2    -0.62400   18.00281    6.40398   24.96790
     154      444        3     0.49400   18.52440    5.35290   24.53324
     155      444        3     0.13000   17.86055    4.68905   23.36624
     156      444        3    -0.15600   16.71463    5.25279   22.79987
     157      444        4     0.15600   16.32739    6.00620   23.18711
     158      444        2    -0.62400   19.93902   18.00281   24.96790
     159      444        3     0.49400   20.99010   18.52440   24.53324
     160      444        3     0.13000   21.65395   17.86055   23.36624
     161      444        3    -0.15600   21.09021   16.71463   22.79987
     162      444        4     0.15600   20.33680   16.32739   23.18711
     163      444        2    -0.62400    8.34019   19.93902   24.96790
     164      444        3     0.49400    7.81860   20.99010   24.53324
     165      444        3     0.13000    8.48245   21.65395   23.36624
     166      444        3    -0.15600    9.62837   21.09021   22.79987
     167      444        4     0.15600   10.01561   20.33680   23.18711
     168      444        2    -0.62400    6.40398    8.34019   24.96790
     169      444        3     0.49400    5.35290    7.81860   24.53324
     170      444        3     0.13000    4.68905    8.48245   23.36624
     171      444        3    -0.15600    5.25279    9.62837   22.79987
     172      444        4     0.15600    6.00620   10.01561   23.18711
     173      444        2    -0.62400    1.37510   18.00281   19.93902
     174      444        3     0.49400    1.80976   18.52440   20.99010
     175      444        3     0.13000    2.97676   17.86055   21.65395
     176      444        3    -0.15600    3.54313   16.71463   21.09021
     177      444        4     0.15600    3.15589   16.32739   20.33680
     178      444        2    -0.62400    8.34019    1.37510   19.93902
     179      444        3     0.49400    7.81860    1.80976   20.99010
     180      444        3     0.13000    8.48245    2.97676   21.65395
     181      444        3    -0.15600    9.62837    3.54313   21.09021
     182      444        4     0.15600   10.01561    3.15589   20.33680
     183      444        2    -0.62400   24.96790    8.34019   19.93902
     184      444        3     0.49400   24.53324    7.81860   20.99010
     185      444        3     0.13000   23.36624    8.48245   21.65395
     186      444        3    -0.15600   22.79987    9.62837   21.09021
     187      444        4     0.15600   23.18711   10.01561   20.33680
     188      444        2    -0.62400   18.00281   24.96790   19.93902
     189      444        3     0.49400   18.52440   24.53324   20.99010
     190      444        3     0.13000   17.86055   23.36624   21.65395
     191      444        3    -0.15600   16.71463   22.79987   21.09021
     192      444        4     0.15600   16.32739   23.18711   20.33680
     193      444        2    -0.62400    1.37510    8.34019    6.40398
     194      444        3     0.49400    1.80976    7.81860    5.35290
     195      444        3     0.13000    2.97676    8.48245    4.68905
     196      444        3    -0.15600    3.54313    9.62837    5.25279
     197      444        4     0.15600    3.15589   10.01561    6.00620
     198      444        2    -0.62400   18.00281    1.37510    6.40398
     199      444        3     0.49400   18.52440    1.80976    5.35290
     200      444        3     0.13000   17.86055    2.97676    4.68905
     201      444        3    -0.15600   16.71463    3.54313    5.25279
     202      444        4     0.15600   16.32739    3.15589    6.00620
     203      444        2    -0.62400   24.96790   18.00281    6.40398
     204      444        3     0.49400   24.53324   18.52440    5.35290
     205      444        3     0.13000   23.36624   17.86055    4.68905
     206      444        3    -0.15600   22.79987   16.71463    5.25279
     207      444        4     0.15600   23.18711   16.32739    6.00620
     208      444        2    -0.62400    8.34019   24.96790    6.40398
     209      444        3     0.49400    7.81860   24.53324    5.35290
     210      444        3     0.13000    8.48245   23.36624    4.68905
     211      444        3    -0.15600    9.62837   22.79987    5.25279
     212      444        4     0.15600   10.01561   23.18711    6.00620
     213      444        2    -0.62400   19.93902    1.37510   18.00281
     214      444        3     0.49400   20.99010    1.80976   18.52440
     215      444        3     0.13000   21.65395    2.97676   17.86055
     216      444        3    -0.15600   21.09021    3.54313   16.71463
     217      444        4     0.15600   20.33680    3.15589   16.32739
     218      444        2    -0.62400   19.93902   24.96790    8.34019
     219      444        3     0.49400   20.99010   24.53324    7.81860
     220      444        3     0.13000   21.65395   23.36624    8.48245
     221      444        3    -0.15600   21.09021   22.79987    9.62837
     222      444        4     0.15600   20.33680   23.18711   10.01561
     223      444        2    -0.62400    1.37510   19.93902    8.34019
     224      444        3     0.49400    1.80976   20.99010    7.81860
     225      444        3     0.13000    2.97676   21.65395    8.48245
     226      444        3    -0.15600    3.54313   21.09021    9.62837
     227      444        4     0.15600    3.15589   20.33680   10.01561
     228      444        2    -0.62400    6.40398    1.37510    8.34019
     229      444        3     0.49400    5.35290    1.80976    7.81860
     230      444        3     0.13000    4.68905    2.97676    8.48245
     231      444        3    -0.15600    5.25279    3.54313    9.62837
     232      444        4     0.15600    6.00620    3.15589   10.01561
     233      444        2    -0.62400   24.96790    6.40398    8.34019
     234      444        3     0.49400   24.53324    5.35290    7.81860
     235      444        3     0.13000   23.36624    4.68905    8.48245
     236      444        3    -0.15600   22.79987    5.25279    9.62837
     237      444        4     0.15600   23.18711    6.00620   10.01561
     238      444        2    -0.62400    6.40398   24.96790   18.00281
     239      444        3     0.49400    5.35290   24.53324   18.52440
     240      444        3     0.13000    4.68905   23.36624   17.86055
     241      444        3    -0.15600    5.25279   22.79987   16.71463
     242      444        4     0.15600    6.00620   23.18711   16.32739
     243      444        2    -0.62400    1.37510    6.40398   18.00281
     244      444        3     0.49400    1.80976    5.35290   18.52440
     245      444        3     0.13000    2.97676    4.68905   17.86055
     246      444        3    -0.15600    3.54313    5.25279   16.71463
     247      444        4     0.15600    3.15589    6.00620   16.32739
     248      444        2    -0.62400   24.96790   19.93902   18.00281
     249      444        3     0.49400   24.53324   20.99010   18.52440
     250      444        3     0.13000   23.36624   21.65395   17.86055
     251      444        3    -0.15600   22.79987   21.09021   16.71463
     252      444        4     0.15600   23.18711   20.33680   16.32739
     253      444        1     1.24800    7.51566   20.68716   13.17150
     254      444        2    -0.62400    8.34019   19.57548   11.79640
     255      444        3     0.49400    7.81860   18.52440   11.36174
     256      444        3     0.13000    8.48245   17.86055   10.19474
     257      444        3    -0.15600    9.62837   18.42429    9.62837
     258      444        4     0.15600   10.01561   19.17770   10.01561
     259      444        1     1.24800   18.82734   20.68716   13.17150
     260      444        2    -0.62400   19.93902   21.51169   11.79640
     261      444        3     0.49400   20.99010   20.99010   11.36174
     262      444        3     0.13000   21.65395   21.65395   10.19474
     263      444        1     1.24800   18.82734    5.65584   13.17150
     264      444        2    -0.62400   18.00281    6.76752   11.79640
     265      444        3     0.49400   18.52440    7.81860   11.36174
     266      444        3     0.13000   17.86055    8.48245   10.19474
     267      444        3    -0.15600   16.71463    7.91871    9.62837
     268      444        4     0.15600   16.32739    7.16530   10.01561
     269      444        1     1.24800    7.51566    5.65584   13.17150
     270      444        2    -0.62400    6.40398    4.83131   11.79640
     271      444        3     0.49400    5.35290    5.35290   11.36174
     272      444        3     0.13000    4.68905    4.68905   10.19474
     273      444        2    -0.62400    8.34019    6.76752   14.54660
     274      444        3     0.49400    7.81860    7.81860   14.98126
     275      444        3     0.13000    8.48245    8.48245   16.14826
     276      444        3    -0.15600    9.62837    7.91871   16.71463
     277      444        4     0.15600   10.01561    7.16530   16.32739
     278      444        2    -0.62400    6.40398   21.51169   14.54660
     279      444        3     0.49400    5.35290   20.99010   14.98126
     280      444        3     0.13000    4.68905   21.65395   16.14826
     281      444        2    -0.62400   18.00281   19.57548   14.54660
     282      444        3     0.49400   18.52440   18.52440   14.98126
     283      444        3     0.13000   17.86055   17.86055   16.14826
     284      444        3    -0.15600   16.71463   18.42429   16.71463
     285      444        4     0.15600   16.32739   19.17770   16.32739
     286      444        2    -0.62400   19.93902    4.83131   14.54660
     287      444        3     0.49400   20.99010    5.35290   14.98126
     288      444        3     0.13000   21.65395    4.68905   16.14826
     289      444        1     1.24800    0.00000   20.68716   20.68716
     290      444        2    -0.62400   24.96790   21.51169   19.57548
     291      444        3    -0.15600   22.79987   22.79987   18.42429
     292      444        4     0.15600   23.18711   23.18711   19.17770
     293      444        1     1.24800   18.82734   13.17150   20.68716
     294      444        2    -0.62400   18.00281   11.79640   19.57548
     295      444        3     0.49400   18.52440   11.36174   18.52440
     296      444        3     0.13000   17.86055   10.19474   17.86055
     297      444        3    -0.15600   16.71463    9.62837   18.42429
     298      444        4     0.15600   16.32739   10.01561   19.17770
     299      444        1     1.24800    0.00000    5.65584   20.68716
     300      444        2    -0.62400    1.37510    4.83131   19.57548
     301      444        3    -0.15600    3.54313    3.54313   18.42429
     302      444        4     0.15600    3.15589    3.15589   19.17770
     303      444        1     1.24800    7.51566   13.17150   20.68716
     304      444        2    -0.62400    8.34019   14.54660   19.57548
     305      444        3     0.49400    7.81860   14.98126   18.52440
     306      444        3     0.13000    8.48245   16.14826   17.86055
     307      444        3    -0.15600    9.62837   16.71463   18.42429
     308      444        4     0.15600   10.01561   16.32739   19.17770
     309      444        1     1.24800    0.00000    5.65584    5.65584
     310      444        2    -0.62400   24.96790    4.83131    6.76752
     311      444        3    -0.15600   22.79987    3.54313    7.91871
     312      444        4     0.15600   23.18711    3.15589    7.16530
     313      444        1     1.24800    7.51566   13.17150    5.65584
     314      444        2    -0.62400    8.34019   11.79640    6.76752
     315      444        3     0.49400    7.81860   11.36174    7.81860
     316      444        3     0.13000    8.48245   10.19474    8.48245
     317      444        3    -0.15600    9.62837    9.62837    7.91871
     318      444        4     0.15600   10.01561   10.01561    7.16530
     319      444        1     1.24800    0.00000   20.68716    5.65584
     320      444        2    -0.62400    1.37510   21.51169    6.76752
     321      444        3    -0.15600    3.54313   22.79987    7.91871
     322      444        4     0.15600    3.15589   23.18711    7.16530
     323      444        1     1.24800   18.82734   13.17150    5.65584
     324      444        2    -0.62400   18.00281   14.54660    6.76752
     325      444        3     0.49400   18.52440   14.98126    7.81860
     326      444        3     0.13000   17.86055   16.14826    8.48245
     327      444        3    -0.15600   16.71463   16.71463    7.91871
     328      444        4     0.15600   16.32739   16.32739    7.16530
     329      444        2    -0.62400    6.40398   11.79640   21.51169
     330      444        3     0.49400    5.35290   11.36174   20.99010
     331      444        3     0.13000    4.68905   10.19474   21.65395
     332      444        2    -0.62400    6.40398   14.54660    4.83131
     333      444        3     0.49400    5.35290   14.98126    5.35290
     334      444        3     0.13000    4.68905   16.14826    4.68905
     335      444        2    -0.62400   24.96790   19.57548    4.83131
     336      444        3    -0.15600   22.79987   18.42429    3.54313
     337      444        4     0.15600   23.18711   19.17770    3.15589
     338      444        2    -0.62400   19.93902   11.79640    4.83131
     339      444        3     0.49400   20.99010   11.36174    5.35290
     340      444        3     0.13000   21.65395   10.19474    4.68905
     341      444        2    -0.62400    1.37510    6.76752    4.83131
     342      444        3    -0.15600    3.54313    7.91871    3.54313
     343      444        4     0.15600    3.15589    7.16530    3.15589
     344      444        2    -0.62400   19.93902   14.54660   21.51169
     345      444        3     0.49400   20.99010   14.98126   20.99010
     346      444        3     0.13000   21.65395   16.14826   21.65395
     347      444        2    -0.62400   24.96790    6.76752   21.51169
     348      444        3    -0.15600   22.79987    7.91871   22.79987
     349      444        4     0.15600   23.18711    7.16530   23.18711
     350      444        2    -0.62400    1.37510   19.57548   21.51169
     351      444        3    -0.15600    3.54313   18.42429   22.79987
     352      444        4     0.15600    3.15589   19.17770   23.18711
     353      444        2    -0.62400   18.00281    6.76752   14.54660
     354      444        3     0.49400   18.52440    7.81860   14.98126
     355      444        3     0.13000   17.86055    8.48245   16.14826
     356      444        3    -0.15600   16.71463    7.91871   16.71463
     357      444        4     0.15600   16.32739    7.16530   16.32739
     358      444        2    -0.62400    6.40398    4.83131   14.54660
     359      444        3     0.49400    5.35290    5.35290   14.98126
     360      444        3     0.13000    4.68905    4.68905   16.14826
     361      444        2    -0.62400    8.34019   19.57548   14.54660
     362      444        3     0.49400    7.81860   18.52440   14.98126
     363      444        3     0.13000    8.48245   17.86055   16.14826
     364      444        3    -0.15600    9.62837   18.42429   16.71463
     365      444        4     0.15600   10.01561   19.17770   16.32739
     366      444        2    -0.62400   19.93902   21.51169   14.54660
     367      444        3     0.49400   20.99010   20.99010   14.98126
     368      444        3     0.13000   21.65395   21.65395   16.14826
     369      444        2    -0.62400   18.00281   19.57548   11.79640
     370      444        3     0.49400   18.52440   18.52440   11.36174
     371      444        3     0.13000   17.86055   17.86055   10.19474
     372      444        3    -0.15600   16.71463   18.42429    9.62837
     373      444        4     0.15600   16.32739   19.17770   10.01561
     374      444        2    -0.62400   19.93902    4.83131   11.79640
     375      444        3     0.49400   20.99010    5.35290   11.36174
     376      444        3     0.13000   21.65395    4.68905   10.19474
     377      444        2    -0.62400    8.34019    6.76752   11.79640
     378      444        3     0.49400    7.81860    7.81860   11.36174
     379      444        3     0.13000    8.48245    8.48245   10.19474
     380      444        3    -0.15600    9.62837    7.91871    9.62837
     381      444        4     0.15600   10.01561    7.16530   10.01561
     382      444        2    -0.62400    6.40398   21.51169   11.79640
     383      444        3     0.49400    5.35290   20.99010   11.36174
     384      444        3     0.13000    4.68905   21.65395   10.19474
     385      444        2    -0.62400    1.37510    4.83131    6.76752